data_27030-ICSD
_publ_section_title              'H2 S1'
_chemical_formula_structural     'H2 S'
_chemical_formula_sum            'H2 S1'
_chemical_name_systematic        'Hydrogen sulfide - low phase'
_symmetry_Int_Tables_number      136
_symmetry_space_group_name_H-M   'P 42/m n m'
_audit_creation_date             1980-01-01
_cell_angle_alpha                90.
_cell_angle_beta                 90.
_cell_angle_gamma                90.
_cell_formula_units_Z            4.000
_cell_length_a                   6.754(3)
_cell_length_b                   6.754(3)
_cell_length_c                   4.110(5)
_cell_volume                     187.4802
_refine_ls_R_factor_all          0.0307
loop_
_symmetry_equiv_pos_site_id
_symmetry_equiv_pos_as_xyz
1 '-y+1/2, x+1/2, -z+1/2'
2 'y+1/2, -x+1/2, -z+1/2'
3 'y, x, -z'
4 '-y, -x, -z'
5 'y+1/2, -x+1/2, z+1/2'
6 '-y+1/2, x+1/2, z+1/2'
7 '-y, -x, z'
8 'y, x, z'
9 'x+1/2, -y+1/2, -z+1/2'
10 '-x+1/2, y+1/2, -z+1/2'
11 'x, y, -z'
12 '-x, -y, -z'
13 '-x+1/2, y+1/2, z+1/2'
14 'x+1/2, -y+1/2, z+1/2'
15 '-x, -y, z'
16 'x, y, z'
loop_
_atom_site_label
_atom_site_type_symbol
_atom_site_symmetry_multiplicity
_atom_site_Wyckoff_symbol
_atom_site_fract_x
_atom_site_fract_y
_atom_site_fract_z
_atom_site_B_iso_or_equiv
_atom_site_occupancy
S1 S2- 4 f 0.221(2) 0.221(2) 0 2.13 1.
loop_
_atom_type_symbol
_atom_type_oxidation_number
S2- -2.
H1+ 1.
loop_
_citation_id
_citation_year
_citation_journal_volume
_citation_page_first
_citation_page_last
_citation_journal_id_ASTM
primary 1969 224 905 907 NATUAS
